5
step = 0
CA 15.30800000 14.18000000 -2.95500000
CA 13.36500000 10.96000000 -3.63800000
CA 11.95500000 8.30400000 -1.27800000
CA 12.33700000 4.50300000 -1.10100000
CA 8.69800000 3.38600000 -1.48100000
5
step = 100
CA 18.04210553 12.86495435 -5.81823085
CA 16.24289562 9.50492404 -6.29034508
CA 14.01443498 7.61932536 -3.89301794
CA 14.10743845 3.99402452 -2.69507759
CA 10.55399364 2.89339601 -3.30849911
5
step = 200
CA 19.03067745 11.89644549 -9.41128799
CA 19.74032160 8.25926476 -8.52246187
CA 17.12663156 5.56078087 -7.53805166
CA 16.69095429 3.50190519 -4.40183144
CA 13.27096916 2.04356159 -4.98444470
5
step = 300
CA 21.80526812 8.23593820 -12.38901433
CA 21.86589315 6.52008165 -9.04072516
CA 21.53658309 2.92066975 -7.68498958
CA 19.02364193 1.39496957 -5.32240502
CA 15.68396818 2.84100595 -6.89021743
5
step = 400
CA 26.06382077 1.10912984 -14.44289177
CA 24.15642783 3.46314098 -12.08997615
CA 22.57784896 0.62911859 -10.04144061
CA 19.04045908 -0.34822144 -9.09311010
CA 17.40338371 3.16986955 -8.47887735
5
step = 500
CA 27.34830629 -3.76094733 -16.46350683
CA 26.80261151 -0.88194550 -13.95817622
CA 23.56982334 -1.95822272 -12.29188369
CA 20.31856454 -0.00527817 -11.52352499
CA 21.52816583 3.46699649 -12.31797788
5
step = 600
CA 27.22885768 -7.75178929 -17.50417690
CA 28.68009233 -5.27598573 -15.03069262
CA 26.19578368 -2.93746935 -13.48519644
CA 25.68768383 0.91233131 -13.73194410
CA 26.60346099 1.64018695 -17.35152891
5
step = 700
CA 27.51202094 -9.50062934 -13.21379065
CA 29.14004088 -6.99074654 -15.58473843
CA 28.35972565 -3.29939589 -16.23856749
CA 31.21344439 -0.79922613 -16.73971863
CA 31.43312012 0.07134603 -20.42123475
5
step = 800
CA 27.45465515 -5.21098270 -13.00481025
CA 28.51981507 -8.15415151 -15.33164898
CA 31.61434107 -7.84608091 -17.71616640
CA 33.58795095 -4.75804706 -18.83604635
CA 30.93895978 -2.45363264 -20.41065151
5
step = 900
CA 27.61738336 -4.42085953 -13.46809857
CA 29.64303337 -7.24154485 -14.98278311
CA 29.69165833 -8.88066689 -18.39462653
CA 33.01432606 -8.35181304 -20.10612162
CA 32.81583519 -4.51752760 -20.65024280
5
step = 1000
CA 28.32445073 -6.15578777 -11.74829302
CA 28.38925887 -7.46872965 -15.30285728
CA 30.14908790 -6.79140914 -18.56281188
CA 32.48092727 -9.75090725 -19.47873369
CA 35.19254817 -7.89716205 -21.40191283
5
step = 1100
CA 26.99643539 -9.88313279 -11.82751750
CA 29.94429967 -8.58150868 -13.94710801
CA 30.20521451 -10.35945218 -17.35694519
CA 29.92890802 -9.26435819 -21.03536782
CA 33.47690369 -8.19341535 -21.72453928
5
step = 1200
CA 30.47677221 -8.69677090 -12.81493710
CA 30.43959762 -12.46751379 -13.44549401
CA 29.92281108 -12.56143320 -17.20295552
CA 28.21595238 -10.05699645 -19.52472563
CA 31.28519245 -8.34371519 -21.15555271
5
step = 1300
CA 34.20291743 -11.93226125 -12.01277612
CA 32.04539534 -9.61562425 -14.23030157
CA 30.95329179 -12.57157596 -16.39342084
CA 29.44217662 -13.10348006 -19.81930962
CA 28.96883279 -9.40851563 -20.95622654
5
step = 1400
CA 35.39445964 -10.69880828 -11.13012355
CA 33.51964363 -11.80547158 -14.36112183
CA 33.31788310 -9.98119497 -17.76568278
CA 30.02958806 -11.99881199 -18.20940564
CA 28.14813665 -9.60253282 -20.58642782
5
step = 1500
CA 37.21452653 -10.22289308 -11.77015024
CA 33.61840109 -11.30103283 -12.60154958
CA 32.09877794 -11.86780485 -16.11078130
CA 28.79622392 -10.24901441 -17.38545825
CA 29.99531817 -7.14224514 -19.05013484
5
step = 1600
CA 37.71261406 -11.80668661 -10.40681722
CA 33.89560272 -10.96629332 -10.17491266
CA 31.06967742 -11.69155372 -12.54551994
CA 28.59718965 -9.39252031 -14.43835415
CA 30.89875701 -7.53648688 -16.85858171
5
step = 1700
CA 37.84099127 -12.23347302 -9.05558767
CA 34.86958827 -10.30410481 -10.60067813
CA 31.25631259 -11.34554686 -10.97423815
CA 27.93543792 -9.29604778 -10.56153876
CA 28.94011753 -6.18951960 -12.23566382
5
step = 1800
CA 38.64919284 -12.41579998 -10.85519107
CA 35.80924220 -10.01826376 -9.89341970
CA 32.00789831 -10.34573615 -9.66655444
CA 29.48795483 -8.79044464 -7.30568569
CA 29.34795875 -5.10941332 -8.59386468
5
step = 1900
CA 38.96452502 -10.54844481 -12.26358901
CA 36.51582825 -12.15120891 -9.92474482
CA 33.09771270 -10.75152322 -8.77311729
CA 31.94893822 -9.47076022 -5.31770676
CA 30.73093079 -5.99139487 -6.13770015
5
step = 2000
CA 39.92284027 -12.06272533 -12.56712533
CA 37.74596431 -12.05072379 -9.45156578
CA 34.68549387 -9.94567890 -8.55382026
CA 33.62759176 -7.94116164 -5.37012303
CA 29.96302815 -8.90614377 -5.05806921
5
step = 2100
CA 41.44992981 -11.00510194 -10.36657789
CA 37.85024531 -11.99811918 -9.29387555
CA 36.29833591 -9.02625694 -7.36030199
CA 35.32690626 -9.64029953 -3.86818281
CA 31.46864596 -9.34491557 -4.06549989
5
step = 2200
CA 41.69448903 -11.74403383 -9.44075860
CA 38.10583459 -12.13417551 -8.18117011
CA 35.54549814 -9.85265800 -6.70876538
CA 33.42067062 -9.76990200 -3.48923883
CA 31.73086764 -6.40056827 -3.92059087
5
step = 2300
CA 40.91227903 -13.24083079 -6.26871592
CA 38.11466302 -10.85781759 -7.65178901
CA 36.37304886 -7.95926493 -5.97319096
CA 33.05233275 -7.88320752 -4.14543786
CA 30.29799087 -8.35430402 -6.63388182
5
step = 2400
CA 41.22900582 -10.73428392 -3.55237644
CA 37.40936562 -11.16014030 -3.94723136
CA 35.13710291 -9.22114378 -6.27273117
CA 32.41836971 -7.40906780 -4.39608633
CA 30.72523933 -5.50645254 -7.18012426
5
step = 2500
CA 39.52871665 -11.08110863 1.36782954
CA 36.18555213 -10.45508225 -0.32052017
CA 35.55666370 -8.63453353 -3.68417131
CA 32.68493185 -6.32037192 -4.61652399
CA 33.39433906 -5.98768860 -8.45379761
5
step = 2600
CA 36.32317272 -12.54710286 4.13694335
CA 34.53931261 -11.35833629 0.99355539
CA 36.12433139 -9.25875604 -1.85873396
CA 34.78085903 -6.79919236 -4.36053990
CA 36.15570318 -8.15296517 -7.74124188
5
step = 2700
CA 31.52125469 -14.76540210 4.32290065
CA 32.44226504 -12.32797515 1.60420919
CA 34.96945119 -12.17092566 -1.24548816
CA 37.09918404 -9.23691058 -2.58563084
CA 36.47783070 -9.69700711 -6.34849024
5
step = 2800
CA 27.42140353 -16.58867190 1.47296346
CA 30.44912952 -14.27947440 1.46845468
CA 32.44419191 -12.67568375 -1.44187112
CA 36.12169328 -13.39186103 -2.44488551
CA 37.61975186 -9.94397652 -1.91566187
5
step = 2900
CA 25.55159747 -16.91454952 -0.69104010
CA 29.35613420 -16.65365894 -1.04375274
CA 31.56728839 -13.65787595 -0.19206944
CA 35.07570575 -12.65273815 -1.50629160
CA 37.29236267 -14.30151266 1.02412907
5
step = 3000
CA 25.48250494 -17.38491192 -3.00910395
CA 28.58558576 -15.41563157 -2.14837390
CA 31.48514784 -15.80588293 0.26740192
CA 35.11181057 -14.84227934 0.34596022
CA 36.94296541 -17.79433930 1.74287937
5
step = 3100
CA 28.39903783 -15.07267463 -6.35931441
CA 28.65211553 -16.50078511 -2.77739343
CA 31.63241596 -17.72381456 -0.66070775
CA 33.26206942 -16.20741765 2.47326222
CA 36.30914720 -18.63133012 2.93676164
5
step = 3200
CA 28.84186651 -12.67619507 -6.48240699
CA 28.69077179 -16.34102371 -5.19399823
CA 31.14209308 -18.31294558 -3.00457147
CA 30.53868713 -20.75231787 -0.03034578
CA 33.34451415 -19.34560002 2.28854679
5
step = 3300
CA 29.55923978 -12.20803704 -6.42709312
CA 28.69299363 -15.81648121 -6.99551914
CA 30.80303837 -17.88987945 -4.55161160
CA 30.22088877 -21.36038971 -3.12613417
CA 30.72868840 -20.68664057 0.61651498
5
step = 3400
CA 30.14366104 -13.30660673 -8.27384820
CA 29.01841790 -16.40531625 -6.43111014
CA 30.95302964 -17.96713785 -3.54604995
CA 32.24075778 -21.47059979 -3.80022019
CA 31.94537341 -22.69861333 -0.13819068
5
step = 3500
CA 30.25060362 -14.00631862 -7.48863499
CA 31.62023136 -17.56411905 -7.98099628
CA 31.81172524 -17.84244206 -4.11735018
CA 34.33762976 -19.33385760 -1.79032219
CA 33.00496983 -22.87097628 -1.28119130
5
step = 3600
CA 29.93870519 -16.81297428 -9.06457975
CA 31.29112078 -14.65087852 -6.18420940
CA 30.74416533 -18.06400829 -4.45472481
CA 30.16908745 -19.43945243 -0.83944663
CA 33.89605473 -19.25378019 0.33070181
5
step = 3700
CA 30.72744292 -16.81402584 -9.77102019
CA 31.64175554 -18.42713394 -6.29963478
CA 30.47035806 -15.66661860 -3.97359737
CA 31.88921332 -14.51184861 -0.56693612
CA 34.63674579 -17.32169262 -0.21181499
5
step = 3800
CA 31.39259618 -17.44784832 -9.67055399
CA 33.06314104 -17.31691234 -6.27928041
CA 32.15438630 -14.41681774 -4.12846093
CA 31.74006896 -16.53036380 -0.92448341
CA 33.75780773 -14.33542578 1.40147415
5
step = 3900
CA 32.07254640 -18.73814634 -9.43436670
CA 33.90924056 -16.26015850 -7.12165747
CA 32.25477759 -15.33031425 -3.72476280
CA 34.55938750 -14.04509012 -0.96185168
CA 32.39099596 -14.67367446 2.21595601
5
step = 4000
CA 32.58123622 -18.86382964 -8.73654200
CA 34.94031642 -17.50688823 -6.09673237
CA 32.28157193 -17.24882069 -3.27616492
CA 32.06969709 -13.67374938 -1.80941040
CA 32.76380813 -14.45818108 1.92231093
5
step = 4100
CA 33.95798102 -19.34660776 -9.06966503
CA 34.77143614 -17.51992667 -5.81162680
CA 34.55134116 -18.37418753 -2.13637433
CA 30.94074462 -17.20207047 -1.67942054
CA 31.18311312 -14.90532353 1.33763232
5
step = 4200
CA 36.26510193 -18.38245229 -9.42887065
CA 33.41273297 -18.94264931 -6.93698819
CA 32.94696989 -16.94027269 -3.63259169
CA 31.82367147 -18.34495982 -0.18179184
CA 30.68570110 -15.09284641 1.46212911
5
step = 4300
CA 36.56178894 -18.16918899 -9.77809370
CA 36.31377872 -17.94282418 -5.93736890
CA 33.03822203 -17.76004224 -3.91428459
CA 34.21382534 -16.23336578 -0.57696981
CA 31.30566966 -13.85144763 0.18754990
5
step = 4400
CA 37.88216371 -19.62987304 -8.00627216
CA 36.78753237 -16.78147178 -5.64194139
CA 37.59551168 -17.07243224 -1.93710767
CA 35.38517504 -15.70377135 0.76475440
CA 32.53827020 -14.24605015 -1.34851863
5
step = 4500
CA 37.57895673 -20.42369976 -7.80251588
CA 38.86634194 -17.86919638 -5.21333588
CA 38.78816279 -18.34643757 -1.48962583
CA 37.09050245 -14.98797576 -1.01220451
CA 33.37986875 -16.00735507 -1.36368820
5
step = 4600
CA 39.24897719 -22.58166388 -8.61907952
CA 38.30199077 -19.11539711 -7.21366512
CA 40.33850510 -18.99852955 -3.95146595
CA 39.68707683 -17.28776286 -0.71924923
CA 35.86823657 -17.11158786 -0.71280461
5
step = 4700
CA 39.35832286 -23.78203538 -9.87668754
CA 39.73365817 -20.71563369 -7.63815280
CA 41.98211381 -19.74887148 -4.75376153
CA 40.10713710 -16.98932616 -2.93927365
CA 37.26072409 -18.86268390 -1.37617247
5
step = 4800
CA 38.72167417 -23.57981798 -11.45512234
CA 39.56898597 -22.20894564 -7.91783024
CA 42.50553074 -20.14814481 -6.81703951
CA 40.59062282 -18.33657174 -3.93940613
CA 37.46692623 -20.54537902 -3.99766431
5
step = 4900
CA 41.20540523 -24.45391458 -12.95343153
CA 41.00867720 -22.04677225 -10.04232638
CA 43.71161707 -19.88070028 -8.21599040
CA 40.91385406 -17.71351929 -6.82772779
CA 38.83996182 -20.21924473 -4.89399082
5
step = 5000
CA 45.29741765 -24.64760143 -14.68148762
CA 42.33491456 -22.69202447 -13.13540475
CA 44.14037857 -20.89268345 -10.21894731
CA 43.35901394 -18.46610548 -7.38918562
CA 39.88836274 -19.84047636 -6.23824326
5
step = 5100
CA 46.36433864 -24.02645607 -15.96868575
CA 44.82312353 -20.69720422 -14.77930893
CA 46.03712672 -20.35175708 -11.16020149
CA 44.96711475 -18.78511393 -7.83432413
CA 41.32352630 -18.12261022 -8.71853376
5
step = 5200
CA 45.78218010 -19.81470758 -18.21885862
CA 47.52607029 -18.27266489 -15.10506191
CA 46.94195513 -20.51137747 -12.00952134
CA 45.05145907 -19.38244457 -8.87639023
CA 42.67782900 -16.72738637 -10.41240985
5
step = 5300
CA 46.22595920 -14.30290109 -19.92526872
CA 47.48744863 -17.11299849 -17.49615654
CA 44.88292955 -19.12421698 -15.45734282
CA 45.89840925 -19.11347761 -11.70575356
CA 44.81895629 -15.62541519 -10.61584546
5
step = 5400
CA 45.69703204 -14.64679843 -21.79699572
CA 46.89930393 -16.28068032 -18.54247608
CA 44.73961565 -17.85071132 -15.85406424
CA 45.57432486 -17.74917817 -12.06216393
CA 47.66802372 -14.55236324 -11.88712876
5
step = 5500
CA 46.90704207 -16.59686122 -23.53869045
CA 47.00005570 -14.77102452 -20.18131731
CA 45.22227060 -15.05087252 -16.85321842
CA 46.33604758 -16.39614710 -13.32724240
CA 49.13290879 -14.02002466 -12.56913210
5
step = 5600
CA 49.93471303 -17.64032909 -20.44013562
CA 49.36617151 -13.88416826 -19.85598332
CA 46.84655259 -12.10083875 -17.49970691
CA 46.75132739 -12.70913657 -13.83311712
CA 50.43407433 -13.17963191 -12.97438786
5
step = 5700
CA 50.20796271 -18.01113325 -18.37249651
CA 50.64834196 -14.24538820 -18.78355582
CA 48.35744906 -11.32794935 -17.78287548
CA 46.45774417 -12.78545192 -14.84100535
CA 49.38758886 -14.78848382 -13.20760089
5
step = 5800
CA 49.88250721 -19.80518741 -18.21379533
CA 50.67803325 -16.04329780 -18.14840979
CA 48.47616653 -12.97995628 -17.55240696
CA 47.40014870 -12.47383671 -13.88220816
CA 49.23285529 -15.30037253 -12.11151085
5
step = 5900
CA 47.06555921 -19.84791725 -20.80830813
CA 49.94446871 -17.79215248 -19.24731542
CA 49.76384483 -15.01901392 -16.73651837
CA 47.82370579 -14.44638689 -13.49270229
CA 50.43648500 -15.95962349 -11.07758942
5
step = 6000
CA 48.88150619 -20.27129544 -22.40023646
CA 47.62780929 -19.42915731 -18.89260537
CA 48.46466453 -20.65181724 -15.36667314
CA 48.18410705 -16.92100502 -14.33321085
CA 50.65679381 -16.57376631 -11.50777644
5
step = 6100
CA 51.23582385 -19.98613145 -18.77371748
CA 47.51682038 -20.34473865 -18.07806346
CA 45.12603473 -18.16865999 -15.98072293
CA 46.87357691 -15.37510980 -14.13994575
CA 50.46353976 -16.64407037 -14.49729652
5
step = 6200
CA 50.51695872 -20.41599503 -17.49538721
CA 47.02315487 -19.00666951 -16.74198314
CA 45.11477965 -16.56002970 -18.94087759
CA 45.01446405 -12.95137485 -17.55762223
CA 48.66858089 -12.95475508 -16.26242106
5
step = 6300
CA 48.10002162 -20.04287666 -17.32090163
CA 46.77812135 -16.65279541 -18.54625249
CA 46.93919478 -15.02050532 -21.95947162
CA 44.13087303 -12.68463383 -20.59951343
CA 46.31776150 -9.83262053 -19.27141450
5
step = 6400
CA 47.98261329 -17.68609360 -16.50868320
CA 47.37910495 -16.09862162 -19.91453413
CA 45.92185312 -12.52027147 -20.40855203
CA 48.01640076 -9.35675872 -21.02957455
CA 45.29966782 -6.57399085 -21.02787854
5
step = 6500
CA 44.49138318 -15.87841512 -18.96097385
CA 47.50644087 -13.88714547 -17.66049775
CA 48.87511455 -10.37805843 -18.37716139
CA 47.74842383 -9.22574000 -21.82287599
CA 44.49831101 -7.41551140 -21.33654933
5
step = 6600
CA 44.72715510 -16.45718672 -20.51089756
CA 44.50390263 -13.98831428 -17.61296297
CA 47.03098169 -11.49494077 -16.25954479
CA 48.41518951 -10.93978630 -19.75880341
CA 45.12345740 -10.98462893 -21.57153084
5
step = 6700
CA 42.96737382 -17.73969787 -15.73899629
CA 40.33413138 -15.87064667 -17.83603479
CA 41.02309687 -12.40438748 -18.99435377
CA 44.37834143 -10.52136582 -19.21782637
CA 44.16389142 -9.90530571 -23.02274499
5
step = 6800
CA 38.77992471 -14.61913152 -14.93044324
CA 39.90855069 -17.84950205 -16.62086905
CA 39.16642143 -16.43654077 -20.15385352
CA 41.27942055 -14.55201791 -22.79251258
CA 40.12020444 -11.43850761 -20.89770876
5
step = 6900
CA 36.48808515 -17.39406240 -13.69793522
CA 38.62738128 -17.13373167 -16.96320093
CA 38.21325973 -19.61486783 -19.93820262
CA 35.71221282 -17.78537989 -21.97742546
CA 37.05842881 -14.13234895 -21.45623235
5
step = 7000
CA 38.41166798 -19.53978000 -14.59964596
CA 35.57497355 -17.26142230 -15.88026238
CA 35.93405792 -19.08948589 -19.17577149
CA 35.09796678 -18.94837778 -22.80766130
CA 35.41192262 -15.18488306 -23.48279234
5
step = 7100
CA 38.27579956 -19.02411398 -15.50687368
CA 35.17520432 -20.01834638 -17.57587676
CA 34.39375762 -21.11311646 -21.23580455
CA 32.65952079 -19.68912360 -24.21917907
CA 33.45500426 -15.93842999 -23.69221448
5
step = 7200
CA 35.79141089 -18.52096347 -16.71969947
CA 33.97687736 -21.82128369 -17.84748498
CA 33.76896577 -22.82095644 -21.66646564
CA 31.00948189 -21.64715989 -23.88350387
CA 30.52816919 -18.10739714 -22.72268794
5
step = 7300
CA 35.07050074 -20.14574210 -15.37344014
CA 32.85237861 -21.14139448 -18.30816615
CA 33.43266405 -22.86957709 -21.57448874
CA 29.61491778 -22.97117296 -22.41566787
CA 29.25782273 -19.08485284 -22.64827754
5
step = 7400
CA 31.90186822 -21.76848852 -15.47894460
CA 33.63841960 -20.45076456 -18.72360075
CA 32.79915241 -21.06057243 -22.37901567
CA 29.27085527 -22.47073797 -22.36765740
CA 27.21276157 -19.39318192 -21.72207933
5
step = 7500
CA 30.09923915 -21.86560040 -17.00051698
CA 31.26486624 -19.89498832 -20.07522008
CA 32.89871718 -20.67936864 -23.32436867
CA 30.65672110 -18.10830085 -25.05436562
CA 27.68421110 -17.99073830 -22.59486891
5
step = 7600
CA 29.19478424 -22.74550344 -19.12291973
CA 29.98034501 -19.47712310 -20.82062157
CA 30.33500289 -18.26941241 -24.38182304
CA 30.85117607 -14.48151787 -25.03911341
CA 29.68266361 -14.28098150 -28.75628512
5
step = 7700
CA 28.55251003 -22.91588452 -25.54224458
CA 28.88020044 -19.25061552 -24.40083597
CA 28.11462868 -15.86777904 -25.92681227
CA 30.55008881 -13.17528302 -27.37731037
CA 33.30838404 -15.60307620 -28.80744154
5
step = 7800
CA 27.88645918 -21.59972484 -30.44354586
CA 29.67900684 -19.35912964 -27.93263586
CA 30.34117870 -15.71753460 -28.99473799
CA 31.60309962 -12.69780002 -27.08256101
CA 35.27999787 -13.64708903 -26.60713314
5
step = 7900
CA 31.35674061 -19.63894308 -34.24362807
CA 33.37622228 -17.56683818 -31.71332081
CA 33.92027853 -13.79367498 -31.45467568
CA 33.62804161 -11.83841968 -28.05896867
CA 35.87459191 -14.06767878 -25.91075665
5
step = 8000
CA 32.78513590 -15.81256628 -36.70508701
CA 36.46558284 -14.99165792 -36.09216374
CA 38.43829574 -13.73312458 -33.08329459
CA 38.13100815 -10.84447315 -30.55403752
CA 36.13257437 -12.44550092 -27.76112842
5
step = 8100
CA 34.71958121 -11.61569145 -39.53675829
CA 37.24604660 -10.25716801 -37.02850589
CA 39.56106732 -12.33689501 -34.73999089
CA 40.46494887 -12.07698107 -31.07725283
CA 40.47847813 -8.32660682 -30.52535904
5
step = 8200
CA 37.83527420 -7.87689593 -42.80878477
CA 38.02521619 -9.01450132 -39.19058239
CA 40.57107153 -8.47956952 -36.42910724
CA 42.37288820 -5.42445987 -34.81137212
CA 45.98837260 -6.58229201 -34.97504919
5
step = 8300
CA 38.28007961 -5.83791472 -43.07761126
CA 39.18152253 -4.51982058 -39.60414102
CA 42.30991895 -5.17296792 -37.43787495
CA 45.30404000 -3.35378186 -38.65228141
CA 48.14117044 -4.68117234 -36.51066359
5
step = 8400
CA 39.54424930 -2.39803481 -43.76055737
CA 41.01336132 -1.08277086 -40.49084795
CA 44.09769101 -1.66378766 -38.35489510
CA 47.84663907 -1.75615766 -39.24318546
CA 49.25712934 -3.34496296 -36.06032470
5
step = 8500
CA 44.86185239 -1.69159095 -42.76061641
CA 43.83794647 1.88682824 -42.06808038
CA 45.24139550 1.61491082 -38.50662941
CA 47.44640055 -1.62666732 -38.27000694
CA 49.00697261 -1.15933566 -34.93385898
5
step = 8600
CA 49.77224111 -1.77057210 -42.23879532
CA 47.42224690 1.26187422 -42.23102495
CA 47.30446766 3.12625072 -38.96298804
CA 50.27243843 3.75354394 -36.50305282
CA 48.90354465 1.96389467 -33.34490595
5
step = 8700
CA 53.66386510 -2.26863220 -41.04883303
CA 53.00311644 1.28091776 -39.66431241
CA 50.82989596 2.18205459 -36.68743802
CA 52.54014833 3.41549462 -33.42929933
CA 49.32069562 5.08800058 -31.80213011
5
step = 8800
CA 57.21286005 -0.60241613 -37.92144726
CA 57.36325761 -0.02800027 -34.20139986
CA 55.21738383 3.09357292 -34.18957523
CA 54.19763327 6.02950848 -31.87864970
CA 50.49396046 5.36295972 -31.37334760
5
step = 8900
CA 62.77036318 -0.23236779 -32.07064296
CA 59.39603707 1.41827529 -31.69519821
CA 56.95395771 2.99662666 -33.97305526
CA 56.05852464 5.99883185 -31.80129418
CA 52.61703101 4.86540136 -30.50809087
5
step = 9000
CA 65.16592561 -0.34665521 -28.70048260
CA 62.49133216 2.02896167 -30.00845830
CA 58.72084648 2.15232227 -30.24197788
CA 56.44589182 4.75051652 -32.00328827
CA 53.24948458 2.68569404 -32.17241589
5
step = 9100
CA 65.71775236 0.17909742 -26.14815160
CA 62.91484309 2.02297645 -27.79693304
CA 60.03908490 1.48479194 -30.14095757
CA 58.72310364 3.04710026 -33.30405021
CA 54.99137158 2.47335038 -32.87621112
5
step = 9200
CA 65.14216342 0.70838863 -24.29682411
CA 63.30083952 0.31342968 -27.57038776
CA 59.87050305 1.32853318 -28.66067610
CA 58.57372057 -0.52894132 -31.78759336
CA 56.94462556 1.73976361 -34.33539235
5
step = 9300
CA 65.12896502 0.95533340 -23.97752409
CA 62.56084095 -0.30148093 -26.59489905
CA 62.41776123 0.78200931 -30.30378417
CA 59.55889432 1.83143157 -32.50236735
CA 59.34477498 -1.02377372 -34.99232520
5
step = 9400
CA 64.10813151 3.56030331 -24.82428242
CA 62.64482843 2.00847690 -27.96520727
CA 63.08625312 -1.39154561 -29.68091604
CA 64.08745425 0.54128091 -32.93222223
CA 61.25773887 -0.65901300 -35.14037653
5
step = 9500
CA 62.99359338 3.43984434 -24.67786663
CA 63.67331808 2.39732374 -28.25997432
CA 61.44720298 0.40485140 -30.65879014
CA 63.41161265 -2.16162196 -32.71913132
CA 60.47392924 -4.42398372 -33.88078347
5
step = 9600
CA 61.22198490 3.09762847 -27.37516006
CA 63.67913936 1.59917383 -29.93438438
CA 61.13363059 0.86774705 -32.61953776
CA 60.67196429 -2.57233357 -34.19246804
CA 57.85371032 -4.11161482 -31.94573531
5
step = 9700
CA 63.12461550 4.11718901 -28.49970780
CA 62.72319685 1.43398808 -31.19854707
CA 59.93790789 0.49182832 -33.56750807
CA 59.17060601 -2.94509173 -34.83049409
CA 58.51617272 -4.76762630 -31.52381154
5
step = 9800
CA 63.00075340 4.27596517 -27.87854196
CA 61.58873940 2.28942741 -30.83711053
CA 58.21833954 1.60939508 -32.33957156
CA 57.36478243 -1.88549458 -33.72576818
CA 58.07937057 -3.91176754 -30.55511591
5
step = 9900
CA 60.21880415 6.97362888 -30.81807938
CA 58.82591649 3.61851271 -29.58732090
CA 56.42411981 2.27437883 -32.20258277
CA 54.80123617 -0.87381912 -30.87804375
CA 55.59784029 -0.65841567 -27.12890676
5
step = 10000
CA 56.77820921 8.12939945 -34.44493090
CA 58.14735278 6.79764999 -31.18350795
CA 55.92709955 4.88281728 -28.74976000
CA 55.68395357 1.34825269 -27.22076013
CA 51.89392195 1.40147125 -26.53526866
5
step = 10100
CA 56.37852509 8.06640161 -36.66975244
CA 54.96041705 6.82252854 -33.41510775
CA 55.53863516 7.58253478 -29.68019421
CA 53.76816518 6.23536552 -26.63779242
CA 50.47205785 4.93909774 -27.93906826
5
step = 10200
CA 56.99424560 6.16285346 -36.66191980
CA 54.77776995 9.21591942 -36.23592427
CA 52.25752683 8.03228537 -33.58290276
CA 51.45247860 10.00700326 -30.40298126
CA 49.29475316 7.50452861 -28.52291366
5
step = 10300
CA 54.11669480 5.26019329 -34.30799209
CA 54.31571784 9.02638396 -33.98772168
CA 51.67999381 10.17507191 -36.63222166
CA 48.56761979 10.87504540 -34.49387695
CA 50.19224149 12.92238806 -31.68809312
5
step = 10400
CA 51.20661646 5.20949443 -34.42136132
CA 52.62281685 8.54655525 -33.24685685
CA 53.06385135 12.06975674 -34.60062181
CA 50.61469226 15.01190443 -34.70502027
CA 49.47182760 14.61131841 -38.40569978
5
step = 10500
CA 51.65797823 7.66266856 -31.30500528
CA 51.46001765 10.52107456 -33.82447617
CA 53.32288375 11.24577700 -37.10171477
CA 53.00239265 14.58582846 -38.84227302
CA 54.53041352 13.56520828 -42.24132162
5
step = 10600
CA 51.27222824 12.45440703 -32.18226634
CA 51.07031861 12.31478344 -35.96523282
CA 52.88889811 9.50624380 -37.76479511
CA 56.56728059 10.52482736 -38.24350574
CA 56.27868309 12.28658207 -41.65080036
5
step = 10700
CA 50.51863643 17.21524560 -35.23056348
CA 51.48737996 13.81091066 -33.85105975
CA 53.96771279 12.12376642 -36.31414413
CA 56.99762269 9.98673706 -35.76768577
CA 58.84209028 10.41020253 -39.05342768
5
step = 10800
CA 52.34919700 18.53360404 -36.18898040
CA 54.49202817 15.52737364 -37.21553544
CA 57.20871364 15.86469274 -34.47831276
CA 59.62829055 13.05480069 -35.61009680
CA 58.30206938 10.16378641 -33.48471229
5
step = 10900
CA 53.58871976 18.80139759 -37.69913816
CA 56.60135202 16.57036475 -37.97752724
CA 58.18454928 17.55358493 -34.59352408
CA 57.68194323 14.16940037 -32.94446575
CA 61.14154470 13.45418845 -31.57432046
5
step = 11000
CA 58.13165603 16.94240292 -41.10791612
CA 56.41159171 17.67781557 -37.77339318
CA 58.78927777 20.08104323 -35.95674590
CA 61.16692142 19.24992560 -32.89996424
CA 61.77729417 15.47616048 -33.37252985
5
step = 11100
CA 56.44046476 15.67617351 -39.40425625
CA 58.81922164 18.60776662 -39.75812435
CA 59.76189305 21.58754112 -37.58332712
CA 60.91407585 20.38366154 -34.11535795
CA 63.36038658 17.67734162 -35.10329989
5
step = 11200
CA 54.67969802 17.16889465 -39.34021813
CA 58.42894854 17.59123741 -40.06814899
CA 60.22949980 20.83964203 -40.88578770
CA 62.93203265 23.00194472 -39.00400178
CA 64.50767156 20.36305129 -36.74796922
5
step = 11300
CA 53.94372940 18.87482121 -38.18731281
CA 57.55778830 19.41974320 -39.18026320
CA 59.24817460 20.57240794 -42.50874010
CA 62.17173282 22.91710633 -42.66814701
CA 63.47683845 22.53590855 -39.01599365
5
step = 11400
CA 53.27033606 19.69446627 -37.22193847
CA 55.60201301 22.32989555 -38.80436223
CA 59.15615115 21.97072171 -40.24801904
CA 60.69268026 24.58808724 -42.66554457
CA 63.68400683 25.79379128 -40.59914018
5
step = 11500
CA 53.21166800 22.96718280 -36.25635812
CA 55.23116825 23.97240415 -39.37283360
CA 57.29182103 27.17161465 -39.82407997
CA 60.10294160 25.96581587 -42.09912295
CA 63.03568791 25.83162371 -39.62780462
5
step = 11600
CA 53.24676299 25.72451428 -36.43225004
CA 55.31568889 25.13489674 -39.61941878
CA 58.92762727 26.23637672 -40.41799455
CA 60.62548396 28.15205118 -43.24217612
CA 64.23818821 27.35931481 -42.49791095
5
step = 11700
CA 55.15244477 26.20523262 -37.15867721
CA 57.62326672 26.93310583 -39.99950183
CA 61.36769461 27.63704322 -40.08003328
CA 60.98039130 29.51253928 -43.47052572
CA 64.10166370 28.27047137 -45.25234937
5
step = 11800
CA 58.27118214 26.78394706 -37.31746985
CA 60.68166702 26.89484700 -40.28120585
CA 62.95496160 29.49104459 -41.68077051
CA 62.71804836 29.90187082 -45.47817609
CA 64.13781805 26.59741258 -46.70638779
5
step = 11900
CA 61.62024350 28.83257277 -37.40520976
CA 62.84913365 27.14230580 -40.65496171
CA 64.62779116 28.44212803 -43.70812370
CA 63.94298178 29.03755063 -47.40898374
CA 67.38069890 28.13108296 -49.00195843
5
step = 12000
CA 66.00704021 28.67873655 -37.13577215
CA 65.75698574 27.01750677 -40.66618684
CA 67.02536822 28.58745116 -43.93519181
CA 65.20680840 28.81163412 -47.26893509
CA 68.17653817 29.29472785 -49.63351683
5
step = 12100
CA 68.49893957 28.97899886 -37.12182795
CA 68.13391154 28.21085775 -40.82501668
CA 69.24354431 30.26363625 -43.83977950
CA 65.85070130 30.14180877 -45.57326180
CA 66.96608616 29.50596077 -49.16753596
5
step = 12200
CA 71.22402891 30.60153517 -36.42428859
CA 69.07903002 29.96415154 -39.50542336
CA 69.38060588 29.29184815 -43.25618183
CA 68.62935579 31.53618630 -46.27737679
CA 67.88290840 28.97158316 -49.01004789
5
step = 12300
CA 74.20725417 31.53011626 -37.70759330
CA 70.39213452 31.25275051 -37.81411542
CA 68.81227369 30.66259892 -41.24114534
CA 68.13850970 32.87555983 -44.33250397
CA 69.52206636 30.60238449 -47.09373990
5
step = 12400
CA 75.14902932 31.45790012 -37.82885509
CA 71.82618472 32.22089457 -39.58200361
CA 68.40354325 30.53223622 -39.19691289
CA 66.50035100 33.25094442 -41.10877193
CA 68.27109734 33.23626863 -44.40811918
5
step = 12500
CA 74.00833254 33.58214231 -40.09152103
CA 70.87296586 31.54636369 -39.30493284
CA 68.10047334 31.77757954 -36.69287917
CA 65.41255141 33.80287207 -38.66315870
CA 67.61547012 34.91569480 -41.72943860
5
step = 12600
CA 72.90697216 35.25927669 -40.27088061
CA 70.92695954 32.18753967 -39.02971404
CA 67.36184096 32.16780255 -37.68429467
CA 64.79256914 34.68942597 -39.13408890
CA 66.90810841 35.71358478 -42.08522153
5
step = 12700
CA 74.42950916 32.45191906 -41.78510940
CA 70.91140756 33.64090711 -41.25099609
CA 67.61340533 32.00032138 -40.43129073
CA 65.99736389 35.43280568 -40.19869397
CA 64.88657030 36.08498012 -43.67966656
5
step = 12800
CA 73.51827021 30.18063960 -44.40867414
CA 71.01660349 32.54613392 -42.73983151
CA 67.40509795 32.38797391 -41.31478973
CA 66.53334358 35.75398405 -42.82727641
CA 63.44535655 34.87760475 -44.99953984
5
step = 12900
CA 73.06386138 27.84055773 -44.04781328
CA 71.11573252 30.64814964 -45.79256827
CA 68.32498561 33.01369944 -44.38884459
CA 64.71341712 31.75618834 -45.22610794
CA 62.75889518 34.62693156 -43.55818228
5
step = 13000
CA 72.72294039 27.71933542 -47.41297151
CA 70.64258406 29.81049492 -45.10691906
CA 67.68372992 30.79493554 -47.37954957
CA 64.86903088 33.39073150 -47.32057398
CA 62.11366876 31.73024002 -49.32692762
5
step = 13100
CA 71.60252086 29.30615319 -45.92178451
CA 70.93365263 30.16749402 -49.48202074
CA 67.22315586 31.13498156 -49.03115339
CA 65.18288272 32.72311503 -51.90450258
CA 61.70667630 31.30223599 -51.13288937
5
step = 13200
CA 71.98248366 31.22765909 -47.23237578
CA 68.93526390 30.81644781 -49.65380247
CA 65.80908598 32.15659141 -48.09113698
CA 62.98647173 29.57571041 -48.21431490
CA 60.75537887 31.10539890 -50.99667267
5
step = 13300
CA 70.98979254 31.40855877 -47.31614643
CA 67.36592207 30.35441013 -47.86265042
CA 65.76456311 33.33518695 -45.98876323
CA 62.39215825 31.74608117 -44.67041750
CA 61.12935759 30.10162288 -47.88048318
5
step = 13400
CA 69.19866743 33.98254821 -48.34826577
CA 67.88710363 31.73754408 -45.63107552
CA 65.11417041 34.11788671 -44.27390161
CA 61.49370760 33.22970876 -44.62457271
CA 61.21879828 30.21828716 -42.35853305
5
step = 13500
CA 67.88635945 32.74688026 -44.19267117
CA 66.08064291 35.17535594 -41.81918225
CA 62.27468612 35.36065971 -42.09178034
CA 61.11315797 31.95378755 -42.90528927
CA 62.64520292 29.96115343 -39.91867471
5
step = 13600
CA 65.73431256 33.55704471 -38.03664919
CA 62.51613735 35.53899949 -38.53510482
CA 60.37698536 34.46882536 -41.46726548
CA 59.72569039 30.60625522 -41.62497482
CA 60.77770027 29.66436531 -38.10865825
5
step = 13700
CA 63.59731076 33.08657389 -36.97575233
CA 60.00164719 34.30441270 -36.17152310
CA 58.62533891 32.88109635 -39.50660071
CA 58.27093592 29.02629060 -39.07724966
CA 57.21435802 28.81174732 -35.45955353
5
step = 13800
CA 63.63391039 32.26455954 -36.09201316
CA 59.82237302 32.21089838 -34.96877787
CA 56.96481753 31.53310768 -37.49140887
CA 55.40878758 28.09437698 -37.81145429
CA 55.69163133 26.68669179 -34.28343886
5
step = 13900
CA 63.55463252 33.00811895 -34.91701680
CA 60.76485237 30.82033336 -33.51252410
CA 57.59655943 30.82981508 -35.68686456
CA 54.37378136 28.96377849 -35.58999838
CA 54.67829517 26.92004848 -32.39321474
5